[Molden Format]
made by pyscf v[2.6.2]
[Atoms] (AU)
C   1   6    -1.12113104600359     0.56702744148474    -0.00006614041436
C   2   6     1.12091372749926    -0.56687248394253    -0.00004346370086
C   3   6    -3.53653740444791    -0.77904148457807    -0.00004346370086
C   4   6     3.53655063253078     0.77880148936025    -0.00005858150986
C   5   6    -5.77292811738606     0.34246939637655    -0.00005102260536
C   6   6     5.77306228794090    -0.34248640391167     0.00000188972612
H   7   1    -1.21452320080572     2.60291065370204    -0.00010015548460
H   8   1     1.21414903503305    -2.60275947561208    -0.00001322808287
H   9   1    -3.43824141035253    -2.81371149262340    -0.00002078698737
H   10   1     3.43831888912364     2.81346582822720    -0.00012472192422
H   11   1    -7.49944048629856    -0.72639938392606    -0.00003023561799
H   12   1    -5.95514306922112     2.36843343616601    -0.00007369931886
H   13   1     7.49955953904441     0.72641072228281    -0.00000755890450
H   14   1     5.95538684389119    -2.36843721561826     0.00006425068824
[GTO]
1 0
 s    3 1.00
             71.616837    0.15432897000916
             13.045096    0.53532814003178
             3.5305122     0.4446345400264
 s    3 1.00
             2.9412494  -0.099967230075964
             0.6834831    0.39951283030359
             0.2222899    0.70011547053201
 p    3 1.00
             2.9412494    0.15591627210511
             0.6834831    0.60768372820466
             0.2222899    0.39195739529202

2 0
 s    3 1.00
             71.616837    0.15432897000916
             13.045096    0.53532814003178
             3.5305122     0.4446345400264
 s    3 1.00
             2.9412494  -0.099967230075964
             0.6834831    0.39951283030359
             0.2222899    0.70011547053201
 p    3 1.00
             2.9412494    0.15591627210511
             0.6834831    0.60768372820466
             0.2222899    0.39195739529202

3 0
 s    3 1.00
             71.616837    0.15432897000916
             13.045096    0.53532814003178
             3.5305122     0.4446345400264
 s    3 1.00
             2.9412494  -0.099967230075964
             0.6834831    0.39951283030359
             0.2222899    0.70011547053201
 p    3 1.00
             2.9412494    0.15591627210511
             0.6834831    0.60768372820466
             0.2222899    0.39195739529202

4 0
 s    3 1.00
             71.616837    0.15432897000916
             13.045096    0.53532814003178
             3.5305122     0.4446345400264
 s    3 1.00
             2.9412494  -0.099967230075964
             0.6834831    0.39951283030359
             0.2222899    0.70011547053201
 p    3 1.00
             2.9412494    0.15591627210511
             0.6834831    0.60768372820466
             0.2222899    0.39195739529202

5 0
 s    3 1.00
             71.616837    0.15432897000916
             13.045096    0.53532814003178
             3.5305122     0.4446345400264
 s    3 1.00
             2.9412494  -0.099967230075964
             0.6834831    0.39951283030359
             0.2222899    0.70011547053201
 p    3 1.00
             2.9412494    0.15591627210511
             0.6834831    0.60768372820466
             0.2222899    0.39195739529202

6 0
 s    3 1.00
             71.616837    0.15432897000916
             13.045096    0.53532814003178
             3.5305122     0.4446345400264
 s    3 1.00
             2.9412494  -0.099967230075964
             0.6834831    0.39951283030359
             0.2222899    0.70011547053201
 p    3 1.00
             2.9412494    0.15591627210511
             0.6834831    0.60768372820466
             0.2222899    0.39195739529202

7 0
 s    3 1.00
            3.42525091    0.15432897070298
            0.62391373    0.53532814243847
             0.1688554    0.44463454202535

8 0
 s    3 1.00
            3.42525091    0.15432897070298
            0.62391373    0.53532814243847
             0.1688554    0.44463454202535

9 0
 s    3 1.00
            3.42525091    0.15432897070298
            0.62391373    0.53532814243847
             0.1688554    0.44463454202535

10 0
 s    3 1.00
            3.42525091    0.15432897070298
            0.62391373    0.53532814243847
             0.1688554    0.44463454202535

11 0
 s    3 1.00
            3.42525091    0.15432897070298
            0.62391373    0.53532814243847
             0.1688554    0.44463454202535

12 0
 s    3 1.00
            3.42525091    0.15432897070298
            0.62391373    0.53532814243847
             0.1688554    0.44463454202535

13 0
 s    3 1.00
            3.42525091    0.15432897070298
            0.62391373    0.53532814243847
             0.1688554    0.44463454202535

14 0
 s    3 1.00
            3.42525091    0.15432897070298
            0.62391373    0.53532814243847
             0.1688554    0.44463454202535

[5d]
[7f]
[9g]

[MO]
 Sym= A
 Ene=               0
 Spin= Alpha
 Occup=    1.00000
   1    1.0551667026108e-06
   2    -4.1130318288472e-06
   3    3.6761829892382e-06
   4    1.9607414454237e-05
   5      0.43154534206657
   6    8.570445528639e-07
   7    -3.2824130437581e-06
   8    -7.0717434556095e-06
   9    -8.0793257124367e-06
  10      0.43153031477758
  11    8.3769191485779e-07
  12    -3.2572931648237e-06
  13    -6.3272003102787e-06
  14    -5.4506649723956e-06
  15      0.33240164254439
  16    8.9497434312735e-07
  17    -3.2884702909336e-06
  18    3.3886435952992e-06
  19    2.4431003501222e-05
  20      0.33235139052917
  21    2.1734316781964e-07
  22    -1.0425718932935e-06
  23    3.3238782747638e-06
  24    7.4567560110913e-06
  25      0.23366986066718
  26    5.1451036248063e-07
  27    -2.0763526697516e-06
  28    -4.2010823408356e-06
  29    -5.9548701585846e-07
  30      0.23362658241296
  31    1.2806076687467e-05
  32    1.539901559735e-05
  33    9.0753791377793e-06
  34    1.4131691498544e-05
  35    -5.5880605130194e-06
  36    5.3395451412249e-06
  37    -6.9098758366271e-06
  38    8.2842959095389e-06
 Sym= A
 Ene=               1
 Spin= Alpha
 Occup=    1.00000
   1    2.7253526271816e-07
   2    -1.0927427394523e-06
   3    -1.5545894478995e-06
   4    -1.8784965954007e-06
   5     -0.11943426277394
   6    -4.0993218152182e-08
   7    2.9009855224668e-07
   8    -6.2123095265134e-07
   9    -1.177987092516e-07
  10      0.11948068818366
  11    5.3511518716583e-08
  12    -2.2901152943833e-07
  13    -7.9112074433902e-07
  14    -4.67866463071e-06
  15     -0.44952071201882
  16    1.300281565032e-08
  17    -1.371012699258e-08
  18    -4.9121246686744e-06
  19    1.5604728653139e-05
  20      0.44956185930756
  21    -1.1557159691024e-07
  22    5.0093745725596e-07
  23    -1.5671706136838e-06
  24    -5.4647178999635e-06
  25     -0.41853680754965
  26    1.9189445003576e-07
  27    -7.5329958524332e-07
  28    -4.7250056119378e-06
  29    1.161871117236e-05
  30      0.41856771573032
  31    -1.4395908064477e-07
  32    2.7299729262926e-06
  33    -6.0223990557775e-07
  34    1.9653503523514e-06
  35    4.2342195302096e-07
  36    -4.708357108043e-07
  37    -4.6056312572845e-07
  38    9.3833484747994e-07
 Sym= A
 Ene=               2
 Spin= Alpha
 Occup=    1.00000
   1    -5.8303487448488e-08
   2    1.7854197503137e-07
   3    2.4098564081141e-07
   4    7.2338617538449e-06
   5      0.44419319653639
   6    -1.0844492362178e-07
   7    3.7150071785786e-07
   8    -1.3933927946032e-06
   9    7.3562095216083e-06
  10      0.44420242690151
  11    1.0072776377304e-07
  12    -4.0196897212684e-07
  13    -8.9059935363309e-07
  14    -3.7288024794651e-06
  15     -0.27683550289765
  16    5.5002354433132e-08
  17    -1.1442620775503e-07
  18    2.9938486730271e-06
  19    -7.8269334622073e-06
  20       -0.276827755822
  21    -3.6642190906106e-08
  22    1.7998290778473e-07
  23    -1.7352711321363e-06
  24    -5.1262799376571e-06
  25     -0.42649237054418
  26    2.1172918048061e-07
  27    -8.6681056244192e-07
  28    6.4246532926927e-06
  29    -1.2975692370547e-05
  30     -0.42649070748672
  31    -1.3383703653723e-07
  32    -7.1590869763507e-07
  33    5.4023853919806e-07
  34    1.5064799429517e-06
  35    3.2813392007198e-08
  36    3.3934282275969e-08
  37    5.6044050678799e-07
  38    8.4613485172802e-08
 Sym= A
 Ene=               3
 Spin= Alpha
 Occup=    1.00000
   1    -1.3245295274116e-07
   2    6.3356905463236e-07
   3    2.5101834065048e-07
   4    8.250730858509e-06
   5      0.50341877106092
   6    1.0231191122571e-07
   7    -5.4529958115205e-07
   8    1.2593791833387e-06
   9    -8.1338507005659e-06
  10     -0.50340575742951
  11    6.3393103517148e-09
  12    3.871035583282e-09
  13    8.6736416032304e-07
  14    3.597287974499e-06
  15      0.30780263672543
  16    -2.8616976079631e-08
  17    8.8901989984236e-08
  18    3.3557248123682e-06
  19    -9.2536096182136e-06
  20     -0.30783036385453
  21    -6.392353908655e-09
  22    7.9937348840926e-08
  23    -2.1506425526691e-06
  24    -5.9435669388511e-06
  25     -0.49711791694472
  26    -2.9649075442739e-07
  27    1.4851965842235e-06
  28    -7.1797744294624e-06
  29    1.5118020789437e-05
  30      0.49713093596595
  31    4.0664258980152e-07
  32    -1.039785201945e-06
  33    5.6971382892404e-07
  34    -1.9319718435178e-06
  35    -9.8761149559317e-08
  36    -1.3524953918079e-07
  37    -5.8404750854445e-07
  38    -1.381045623347e-07
 Sym= A
 Ene=               4
 Spin= Alpha
 Occup=    1.00000
   1    4.2728773485879e-07
   2    -2.2807117389543e-06
   3    -7.2301259292252e-07
   4    -2.603831159333e-06
   5     -0.18605293280223
   6    2.1864351968919e-07
   7    -1.1054806666814e-06
   8    6.5323720969906e-07
   9    -1.3902551158215e-06
  10     -0.18600947945657
  11    -2.2609500869733e-07
  12    1.2775765459701e-06
  13    2.7939888557707e-06
  14    7.5647928858069e-06
  15      0.60374949595697
  16    -1.0496473955854e-07
  17    5.1041028155515e-07
  18    -7.3222018532472e-06
  19    1.9657472878538e-05
  20      0.60368067084903
  21    -1.2636218933751e-07
  22    7.7912187389253e-07
  23    -2.181861061748e-06
  24    -6.4281267028739e-06
  25     -0.54368448224174
  26    -1.6337104199842e-07
  27    9.5588367555406e-07
  28    6.539440716885e-06
  29    -1.5422322992905e-05
  30     -0.54362922318535
  31    6.7700855407741e-07
  32    3.5369758816735e-06
  33    -5.1589111895085e-07
  34    -1.9024920911064e-06
  35    -2.9828827179804e-07
  36    -5.9818552706888e-07
  37    -9.6650969502802e-07
  38    4.0770513983221e-07
 Sym= A
 Ene=               5
 Spin= Alpha
 Occup=    1.00000
   1    -7.1233916742152e-07
   2    4.2623221685645e-06
   3    1.150244243929e-06
   4    -1.569700519304e-05
   5     -0.64592027458089
   6    1.6190142522609e-07
   7    -1.0346759895261e-06
   8    -7.9261290562927e-07
   9    3.8102379905465e-06
  10      0.64593812424339
  11    3.5654419248208e-07
  12    -1.9903720057189e-06
  13    -7.060044557453e-07
  14    1.4075422837023e-06
  15       0.5053165014584
  16    1.1782405389341e-08
  17    1.5368430103607e-08
  18    5.1418357293666e-06
  19    -2.1998680565557e-05
  20     -0.50538209390641
  21    -5.2439117143673e-07
  22    3.0512337174702e-06
  23    -9.9688466768573e-07
  24    -6.4335133610422e-06
  25      -0.3311108469015
  26    7.4995743563847e-07
  27    -4.4146987525592e-06
  28    -3.3992331841464e-06
  29    6.1910137675091e-06
  30      0.33117484983195
  31    3.9581350181691e-06
  32    -7.5863180964099e-06
  33    -4.0172794637757e-06
  34    8.1484296589262e-06
  35    -3.5579969129359e-06
  36    1.476703766957e-06
  37    4.8011674108346e-06
  38    -2.2525939073025e-06
