[Molden Format]
made by pyscf v[2.6.2]
[Atoms] (AU)
C   1   6    -1.12113104600359     0.56702744148474    -0.00006614041436
C   2   6     1.12091372749926    -0.56687248394253    -0.00004346370086
C   3   6    -3.53653740444791    -0.77904148457807    -0.00004346370086
C   4   6     3.53655063253078     0.77880148936025    -0.00005858150986
C   5   6    -5.77292811738606     0.34246939637655    -0.00005102260536
C   6   6     5.77306228794090    -0.34248640391167     0.00000188972612
H   7   1    -1.21452320080572     2.60291065370204    -0.00010015548460
H   8   1     1.21414903503305    -2.60275947561208    -0.00001322808287
H   9   1    -3.43824141035253    -2.81371149262340    -0.00002078698737
H   10   1     3.43831888912364     2.81346582822720    -0.00012472192422
H   11   1    -7.49944048629856    -0.72639938392606    -0.00003023561799
H   12   1    -5.95514306922112     2.36843343616601    -0.00007369931886
H   13   1     7.49955953904441     0.72641072228281    -0.00000755890450
H   14   1     5.95538684389119    -2.36843721561826     0.00006425068824
[GTO]
1 0
 s    3 1.00
             71.616837    0.15432897000916
             13.045096    0.53532814003178
             3.5305122     0.4446345400264
 s    3 1.00
             2.9412494  -0.099967230075964
             0.6834831    0.39951283030359
             0.2222899    0.70011547053201
 p    3 1.00
             2.9412494    0.15591627210511
             0.6834831    0.60768372820466
             0.2222899    0.39195739529202

2 0
 s    3 1.00
             71.616837    0.15432897000916
             13.045096    0.53532814003178
             3.5305122     0.4446345400264
 s    3 1.00
             2.9412494  -0.099967230075964
             0.6834831    0.39951283030359
             0.2222899    0.70011547053201
 p    3 1.00
             2.9412494    0.15591627210511
             0.6834831    0.60768372820466
             0.2222899    0.39195739529202

3 0
 s    3 1.00
             71.616837    0.15432897000916
             13.045096    0.53532814003178
             3.5305122     0.4446345400264
 s    3 1.00
             2.9412494  -0.099967230075964
             0.6834831    0.39951283030359
             0.2222899    0.70011547053201
 p    3 1.00
             2.9412494    0.15591627210511
             0.6834831    0.60768372820466
             0.2222899    0.39195739529202

4 0
 s    3 1.00
             71.616837    0.15432897000916
             13.045096    0.53532814003178
             3.5305122     0.4446345400264
 s    3 1.00
             2.9412494  -0.099967230075964
             0.6834831    0.39951283030359
             0.2222899    0.70011547053201
 p    3 1.00
             2.9412494    0.15591627210511
             0.6834831    0.60768372820466
             0.2222899    0.39195739529202

5 0
 s    3 1.00
             71.616837    0.15432897000916
             13.045096    0.53532814003178
             3.5305122     0.4446345400264
 s    3 1.00
             2.9412494  -0.099967230075964
             0.6834831    0.39951283030359
             0.2222899    0.70011547053201
 p    3 1.00
             2.9412494    0.15591627210511
             0.6834831    0.60768372820466
             0.2222899    0.39195739529202

6 0
 s    3 1.00
             71.616837    0.15432897000916
             13.045096    0.53532814003178
             3.5305122     0.4446345400264
 s    3 1.00
             2.9412494  -0.099967230075964
             0.6834831    0.39951283030359
             0.2222899    0.70011547053201
 p    3 1.00
             2.9412494    0.15591627210511
             0.6834831    0.60768372820466
             0.2222899    0.39195739529202

7 0
 s    3 1.00
            3.42525091    0.15432897070298
            0.62391373    0.53532814243847
             0.1688554    0.44463454202535

8 0
 s    3 1.00
            3.42525091    0.15432897070298
            0.62391373    0.53532814243847
             0.1688554    0.44463454202535

9 0
 s    3 1.00
            3.42525091    0.15432897070298
            0.62391373    0.53532814243847
             0.1688554    0.44463454202535

10 0
 s    3 1.00
            3.42525091    0.15432897070298
            0.62391373    0.53532814243847
             0.1688554    0.44463454202535

11 0
 s    3 1.00
            3.42525091    0.15432897070298
            0.62391373    0.53532814243847
             0.1688554    0.44463454202535

12 0
 s    3 1.00
            3.42525091    0.15432897070298
            0.62391373    0.53532814243847
             0.1688554    0.44463454202535

13 0
 s    3 1.00
            3.42525091    0.15432897070298
            0.62391373    0.53532814243847
             0.1688554    0.44463454202535

14 0
 s    3 1.00
            3.42525091    0.15432897070298
            0.62391373    0.53532814243847
             0.1688554    0.44463454202535

[5d]
[7f]
[9g]

[MO]
 Sym= A
 Ene=               0
 Spin= Alpha
 Occup=    1.00000
   1    7.1812240209548e-07
   2    -3.4384924732678e-06
   3    1.8573507611272e-06
   4    2.5982461532396e-05
   5       1.0375819030436
   6    3.2711226871816e-07
   7    -1.1094114265755e-06
   8    -3.2941664439168e-06
   9    -6.2356954662496e-06
  10     -0.12790801907475
  11    3.2160546192649e-07
  12    -9.8667232950873e-07
  13    -3.1980415595918e-06
  14    -4.034163905151e-06
  15     -0.10028116691198
  16    4.7962106671442e-07
  17    -1.7830644231529e-06
  18    3.8274215561104e-06
  19    1.0806798128708e-05
  20    0.0059490916570261
  21    3.9813573051511e-07
  22    -2.1795928427751e-06
  23    9.8306926575613e-07
  24    3.7995937566826e-06
  25    0.0069320363621026
  26    -1.651964340388e-07
  27    1.4631129938583e-06
  28    -1.0188048010207e-06
  29    -1.9491083960659e-06
  30    0.0002895561818321
  31    4.5810867789942e-06
  32    1.0088607195371e-05
  33    7.4124776441118e-06
  34    2.855710136697e-06
  35    -1.0821635869607e-06
  36    2.0921173543948e-06
  37    -5.8256628973793e-06
  38    5.195254323451e-06
 Sym= A
 Ene=               1
 Spin= Alpha
 Occup=    1.00000
   1    1.1190121112232e-06
   2    -5.3064948534943e-06
   3    -2.8358758523072e-07
   4    7.4636428104064e-06
   5    0.0067302956974561
   6    3.7051422133199e-07
   7    -1.2657498672235e-06
   8    -2.4695951713393e-06
   9    -5.2620697790067e-06
  10     -0.10021955253023
  11    7.4583302620599e-08
  12    1.393533695192e-07
  13    -1.2283689506877e-06
  14    -1.2475241499655e-06
  15    0.00025348018049234
  16    2.9988360348199e-07
  17    -1.0644717468683e-06
  18    -8.7329506757166e-06
  19    4.1405989909495e-05
  20       1.0378581400183
  21    1.8639741073656e-07
  22    -1.0630363594678e-06
  23    9.3151368333419e-07
  24    2.6706431477565e-06
  25    -0.00012388453323744
  26    -5.459349149671e-08
  27    8.5901119580746e-07
  28    8.8005922295979e-07
  29    -5.4031949988078e-06
  30     -0.12747146372088
  31    3.740746258469e-06
  32    1.2901256613052e-05
  33    4.3640623878699e-06
  34    2.5575876858862e-06
  35    -7.3285205585947e-07
  36    1.0345016525972e-06
  37    -5.409974109299e-06
  38    4.923136549369e-06
 Sym= A
 Ene=               2
 Spin= Alpha
 Occup=    1.00000
   1    1.8477997866403e-07
   2    5.6990179529059e-08
   3    2.3573624955843e-06
   4    1.628371901086e-06
   5     -0.12790732845196
   6    3.8795153092537e-07
   7    -1.5900000754509e-06
   8    -5.4544593388954e-06
   9    5.1553917628221e-06
  10       1.0375818229328
  11    6.9946693244851e-07
  12    -3.11178669348e-06
  13    -4.9575913474907e-06
  14    -7.266864340224e-06
  15    0.0059455542198281
  16    5.2193798666548e-07
  17    -1.8530380308702e-06
  18    4.6027086503481e-06
  19    1.200631857871e-06
  20     -0.10028202323889
  21    -1.711633693535e-07
  22    1.0432577513792e-06
  23    1.4753302867185e-06
  24    1.0305506349724e-06
  25    0.00029084532196266
  26    9.3829909389924e-07
  27    -4.6827495821403e-06
  28    7.0065661725159e-07
  29    -6.0775551333654e-06
  30    0.0069371183681984
  31    8.2496981529294e-06
  32    4.0162938259136e-06
  33    2.5642000279666e-06
  34    1.3622363054855e-05
  35    -4.5395042056665e-06
  36    3.6027545065961e-06
  37    -4.6684931876946e-07
  38    3.2724051031177e-06
 Sym= A
 Ene=               3
 Spin= Alpha
 Occup=    1.00000
   1    -7.2432538550315e-09
   2    7.7775439482156e-07
   3    9.2944752617178e-07
   4    1.9156210440343e-06
   5    0.00030621465141492
   6    2.5347777309235e-07
   7    -9.4469371893817e-07
   8    -1.5491012571603e-06
   9    -7.6258205028757e-06
  10    0.0060810600315298
  11    4.1411770034793e-07
  12    -1.9516486232219e-06
  13    -2.8061149821814e-06
  14    -3.5229034904833e-06
  15    -0.00012473460311657
  16    2.6603387414227e-07
  17    -1.051030146498e-06
  18    3.5799808183263e-06
  19    -1.6878753587531e-06
  20     -0.12867163666338
  21    -6.3802787663016e-08
  22    3.6543797634908e-07
  23    7.3826521531913e-07
  24    3.7327664565622e-07
  25    1.9253075327519e-05
  26    2.8000802487776e-07
  27    -1.4973192983674e-06
  28    -1.3522912912177e-05
  29    2.6926572853207e-05
  30       1.0235849353965
  31    4.447854844032e-06
  32    1.6682773141884e-06
  33    1.3751339586419e-06
  34    6.3359980026392e-06
  35    -2.2173510350065e-06
  36    1.8459395259047e-06
  37    -8.8497803043592e-07
  38    1.8165286825801e-06
 Sym= A
 Ene=               4
 Spin= Alpha
 Occup=    1.00000
   1    1.9586246346314e-07
   2    -4.19210254989e-07
   3    2.357997872072e-06
   4    1.5357109091236e-06
   5     -0.10021916782966
   6    6.0073455564177e-07
   7    -2.7029198900277e-06
   8    -1.751052842597e-06
   9    -6.7700825814698e-06
  10    0.0067270836007767
  11    3.0978652995708e-07
  12    -1.221605817053e-06
  13    -4.9369200412633e-07
  14    6.6911308796916e-06
  15       1.0378584872115
  16    2.7973009194752e-07
  17    -9.8726843377031e-07
  18    2.2955932664009e-06
  19    2.6426758562502e-06
  20    0.00025354860561855
  21    -1.2042990291722e-07
  22    9.2068479940398e-07
  23    4.8306089158559e-07
  24    -3.6819365953262e-07
  25     -0.12747231149992
  26    1.8141430165313e-07
  27    -1.0611843286132e-06
  28    -1.1879151804052e-06
  29    -3.5156676791116e-06
  30    -0.00012382272293754
  31    7.293486888552e-06
  32    3.4581685840107e-06
  33    2.083073867025e-06
  34    5.9855253181789e-06
  35    -4.0704760477372e-06
  36    2.6174675911762e-06
  37    -1.4321193880877e-06
  38    2.0881607021175e-06
 Sym= A
 Ene=               5
 Spin= Alpha
 Occup=    1.00000
   1    2.411454324151e-07
   2    -1.0711842383159e-06
   3    1.544863963582e-06
   4    4.6994464606266e-06
   5    0.0060755876219824
   6    1.1192986939137e-07
   7    -1.6480306397725e-07
   8    -1.6764714622016e-06
   9    -2.2079293564322e-06
  10     0.000307602892337
  11    1.6526437792364e-07
  12    -6.6360412878429e-07
  13    -2.4652696523413e-06
  14    -3.1354701474977e-06
  15      -0.1286713663341
  16    2.7338618890025e-07
  17    -1.1271399544546e-06
  18    2.3884066698078e-06
  19    3.8875173894071e-06
  20    -0.00012484305753283
  21    3.343721753486e-07
  22    -1.8285166109596e-06
  23    4.7016795734189e-06
  24    1.4383177979537e-05
  25       1.0235851181352
  26    -3.7623336244536e-08
  27    2.536296894853e-07
  28    -7.3175783322427e-07
  29    -1.0575614222417e-06
  30    1.9258796291083e-05
  31    2.0758965114608e-06
  32    4.1404613433583e-06
  33    3.5987680653668e-06
  34    1.8300795953341e-06
  35    -6.0347774668726e-07
  36    1.6139189702427e-06
  37    -2.5180922584367e-06
  38    2.2759390164473e-06
