[Molden Format]
made by pyscf v[2.6.2]
[Atoms] (AU)
C   1   6    -1.21829131469810     0.64419818723361    -0.00060660208599
C   2   6     1.21824029209274    -0.64390905913655    -0.00057825619412
C   3   6    -3.43945650425063    -0.53571656932682    -0.00054235139775
C   4   6     3.43942626863263     0.53596790290139    -0.00051022605363
C   5   6    -5.87879435433644     0.76290511320041    -0.00048943906626
C   6   6     5.87881136187156    -0.76256874195024    -0.00045731372214
C   7   6    -8.09453980936371    -0.40028745688375    -0.00031369453668
C   8   6     8.09458138333846     0.40058225415918    -0.00033070207180
H   9   1    -1.17195711984989     2.68173679953602    -0.00067463222647
H   10   1     1.17188908970940    -2.68144389198672    -0.00061794044273
H   11   1    -3.49239529190419    -2.57298117134118    -0.00051211577976
H   12   1     3.49234804875108     2.57323250491575    -0.00048943906626
H   13   1    -5.81945884375122     2.79920784461736    -0.00061227126436
H   14   1     5.81949474854759    -2.79886958364106    -0.00052912331488
H   15   1    -9.84049179091962     0.63656747314261    -0.00032125344118
H   16   1    -8.23912086542806    -2.42930907354275    -0.00017007535121
H   17   1     9.84053147516824    -0.63627456559331    -0.00030613563218
H   18   1     8.23918133666405     2.42960387081818    -0.00025322330069
[GTO]
1 0
 s    3 1.00
             71.616837    0.15432897000916
             13.045096    0.53532814003178
             3.5305122     0.4446345400264
 s    3 1.00
             2.9412494  -0.099967230075964
             0.6834831    0.39951283030359
             0.2222899    0.70011547053201
 p    3 1.00
             2.9412494    0.15591627210511
             0.6834831    0.60768372820466
             0.2222899    0.39195739529202

2 0
 s    3 1.00
             71.616837    0.15432897000916
             13.045096    0.53532814003178
             3.5305122     0.4446345400264
 s    3 1.00
             2.9412494  -0.099967230075964
             0.6834831    0.39951283030359
             0.2222899    0.70011547053201
 p    3 1.00
             2.9412494    0.15591627210511
             0.6834831    0.60768372820466
             0.2222899    0.39195739529202

3 0
 s    3 1.00
             71.616837    0.15432897000916
             13.045096    0.53532814003178
             3.5305122     0.4446345400264
 s    3 1.00
             2.9412494  -0.099967230075964
             0.6834831    0.39951283030359
             0.2222899    0.70011547053201
 p    3 1.00
             2.9412494    0.15591627210511
             0.6834831    0.60768372820466
             0.2222899    0.39195739529202

4 0
 s    3 1.00
             71.616837    0.15432897000916
             13.045096    0.53532814003178
             3.5305122     0.4446345400264
 s    3 1.00
             2.9412494  -0.099967230075964
             0.6834831    0.39951283030359
             0.2222899    0.70011547053201
 p    3 1.00
             2.9412494    0.15591627210511
             0.6834831    0.60768372820466
             0.2222899    0.39195739529202

5 0
 s    3 1.00
             71.616837    0.15432897000916
             13.045096    0.53532814003178
             3.5305122     0.4446345400264
 s    3 1.00
             2.9412494  -0.099967230075964
             0.6834831    0.39951283030359
             0.2222899    0.70011547053201
 p    3 1.00
             2.9412494    0.15591627210511
             0.6834831    0.60768372820466
             0.2222899    0.39195739529202

6 0
 s    3 1.00
             71.616837    0.15432897000916
             13.045096    0.53532814003178
             3.5305122     0.4446345400264
 s    3 1.00
             2.9412494  -0.099967230075964
             0.6834831    0.39951283030359
             0.2222899    0.70011547053201
 p    3 1.00
             2.9412494    0.15591627210511
             0.6834831    0.60768372820466
             0.2222899    0.39195739529202

7 0
 s    3 1.00
             71.616837    0.15432897000916
             13.045096    0.53532814003178
             3.5305122     0.4446345400264
 s    3 1.00
             2.9412494  -0.099967230075964
             0.6834831    0.39951283030359
             0.2222899    0.70011547053201
 p    3 1.00
             2.9412494    0.15591627210511
             0.6834831    0.60768372820466
             0.2222899    0.39195739529202

8 0
 s    3 1.00
             71.616837    0.15432897000916
             13.045096    0.53532814003178
             3.5305122     0.4446345400264
 s    3 1.00
             2.9412494  -0.099967230075964
             0.6834831    0.39951283030359
             0.2222899    0.70011547053201
 p    3 1.00
             2.9412494    0.15591627210511
             0.6834831    0.60768372820466
             0.2222899    0.39195739529202

9 0
 s    3 1.00
            3.42525091    0.15432897070298
            0.62391373    0.53532814243847
             0.1688554    0.44463454202535

10 0
 s    3 1.00
            3.42525091    0.15432897070298
            0.62391373    0.53532814243847
             0.1688554    0.44463454202535

11 0
 s    3 1.00
            3.42525091    0.15432897070298
            0.62391373    0.53532814243847
             0.1688554    0.44463454202535

12 0
 s    3 1.00
            3.42525091    0.15432897070298
            0.62391373    0.53532814243847
             0.1688554    0.44463454202535

13 0
 s    3 1.00
            3.42525091    0.15432897070298
            0.62391373    0.53532814243847
             0.1688554    0.44463454202535

14 0
 s    3 1.00
            3.42525091    0.15432897070298
            0.62391373    0.53532814243847
             0.1688554    0.44463454202535

15 0
 s    3 1.00
            3.42525091    0.15432897070298
            0.62391373    0.53532814243847
             0.1688554    0.44463454202535

16 0
 s    3 1.00
            3.42525091    0.15432897070298
            0.62391373    0.53532814243847
             0.1688554    0.44463454202535

17 0
 s    3 1.00
            3.42525091    0.15432897070298
            0.62391373    0.53532814243847
             0.1688554    0.44463454202535

18 0
 s    3 1.00
            3.42525091    0.15432897070298
            0.62391373    0.53532814243847
             0.1688554    0.44463454202535

[5d]
[7f]
[9g]

[MO]
 Sym= A
 Ene=               0
 Spin= Alpha
 Occup=    1.00000
   1    -4.4169465993189e-06
   2    2.0346135193152e-05
   3    9.8234300018251e-05
   4    -3.0177010348018e-05
   5      0.37788012390205
   6    -4.3892517199975e-06
   7    2.0077345108013e-05
   8    -9.7420412548312e-05
   9    4.2110230405949e-05
  10      0.37787382010903
  11    -1.0280611949153e-06
  12    7.9832077859863e-06
  13    -8.2236399659586e-05
  14    4.5546206246184e-05
  15      0.34451434841227
  16    -1.7776157166079e-06
  17    1.0548415690393e-05
  18    8.4708346156829e-05
  19    -5.9554890675557e-05
  20      0.34450292887539
  21    -5.9576965361593e-06
  22    2.4119770865172e-05
  23    9.1209717917867e-05
  24    -3.9463311917199e-05
  25      0.24093375805051
  26    -6.6682002063815e-06
  27    2.6616139865678e-05
  28    -9.3148338767429e-05
  29    5.8426223818179e-05
  30       0.2409202389307
  31    3.1942643119587e-06
  32    -8.6965871999003e-06
  33    -4.8761207079049e-05
  34    4.6546763271563e-05
  35      0.16331867303734
  36    2.542595214609e-06
  37    -6.3068487520262e-06
  38    4.7683398844167e-05
  39    -4.686510650281e-05
  40      0.16330838607452
  41    -3.8835096220266e-05
  42    -4.6624722540247e-05
  43    -4.2951024859075e-05
  44    -5.8722060173419e-05
  45    -4.5256789618971e-05
  46    -5.8413763538043e-05
  47    6.668288211651e-05
  48    -4.350224859935e-05
  49    6.9761390545183e-05
  50    -4.936818066814e-05
 Sym= A
 Ene=               1
 Spin= Alpha
 Occup=    1.00000
   1    -1.125540959663e-06
   2    4.3395851126601e-06
   3    -5.7078265790475e-06
   4    -1.0284390514229e-05
   5     -0.16904089080275
   6    2.0735115010282e-07
   7    -7.2194510868953e-07
   8    -6.7366125550594e-06
   9    -2.3634970909685e-06
  10      0.16905681167018
  11    3.6204112486427e-07
  12    -1.7681596418601e-06
  13    -6.9271919706754e-06
  14    3.8485034857942e-06
  15     -0.30818828787882
  16    -3.6189344017402e-07
  17    1.5798602096223e-06
  18    -9.4443146269929e-06
  19    7.9617744036079e-07
  20      0.30820163924135
  21    -4.5404279217096e-07
  22    1.4398678468699e-06
  23    -1.9246829853829e-05
  24    -2.8616685190105e-05
  25     -0.38781868458165
  26    2.4312829330708e-07
  27    -7.6453770942297e-07
  28    -1.4804986634976e-05
  29    -1.7457669917578e-05
  30      0.38782521526111
  31    -6.3094613303039e-07
  32    2.2674982501565e-06
  33    -7.6190455637091e-06
  34    -2.1344769811625e-05
  35     -0.31153938944126
  36    3.4373640851403e-07
  37    -1.2596340868702e-06
  38    -9.4785153713376e-06
  39    -1.0012522654431e-05
  40      0.31154311197737
  41    -4.2092069549168e-06
  42    -1.3577553593592e-06
  43    -1.1676592715332e-05
  44    5.3622544395787e-06
  45    -6.3852935580839e-06
  46    4.6562044859502e-06
  47    -3.4785069848084e-06
  48    5.154281121695e-07
  49    3.8605784271771e-07
  50    1.2063880584233e-06
 Sym= A
 Ene=               2
 Spin= Alpha
 Occup=    1.00000
   1    4.5655073459244e-07
   2    -1.8403816230872e-06
   3    2.2937923941117e-06
   4    -1.3532563492351e-05
   5     -0.31176475844782
   6    -2.8975745470344e-08
   7    2.5042029888299e-08
   8    2.6639681726368e-06
   9    9.7783780840416e-06
  10     -0.31176528203467
  11    -1.2432140697242e-06
  12    5.6344677401492e-06
  13    -4.0466463950425e-06
  14    -5.489290586977e-08
  15     -0.11153816849778
  16    -7.5544715815431e-07
  17     3.33521950275e-06
  18    1.8643745752994e-06
  19    3.3132015963854e-07
  20     -0.11153839236713
  21    -4.1038808169651e-07
  22    1.8615522713013e-06
  23    2.1484613566717e-05
  24    1.8834779679147e-05
  25      0.37235832735017
  26    -1.3145220137405e-07
  27    5.692137439399e-07
  28    -1.5476229535821e-05
  29    -1.1989137186611e-05
  30      0.37236197709824
  31    -2.5901463314474e-07
  32    1.2422503140513e-06
  33    1.5341700298937e-05
  34    2.9795512402423e-05
  35      0.40558977864201
  36    -1.5704112031029e-07
  37    7.0073911393166e-07
  38    -1.4983458071942e-05
  39    -1.5142336058617e-05
  40      0.40559337557209
  41    -7.2610733034176e-06
  42    -6.455032991802e-06
  43    -1.0159258385806e-07
  44    -1.7233681697958e-07
  45    -4.1706336886885e-06
  46    -1.2256981927695e-06
  47    3.0539797236089e-06
  48    -3.1669644945912e-06
  49    5.3963831659019e-07
  50    -6.8717127116628e-07
 Sym= A
 Ene=               3
 Spin= Alpha
 Occup=    1.00000
   1    4.4527877937912e-07
   2    -1.383851849057e-06
   3    -7.7381033120477e-07
   4    -9.4145563577418e-06
   5      -0.3585118704791
   6    -7.9670531062022e-07
   7    3.2955292514995e-06
   8    -9.1148519335224e-06
   9    -2.8852422440109e-06
  10       0.3585089047214
  11    -2.6611094148473e-08
  12    6.8866619332028e-07
  13    -1.5664587544909e-05
  14    -6.0074380151193e-06
  15     -0.41564424467093
  16    -2.2249035208148e-07
  17    8.2120948554655e-07
  18    -1.3203482721782e-05
  19    -4.7673627006965e-06
  20      0.41564586478653
  21    -4.8540682601961e-07
  22    2.0886387761986e-06
  23    1.2966630648074e-05
  24    7.9381760826246e-06
  25      0.20492509224099
  26    8.301386853226e-08
  27    -2.4368639724175e-07
  28    8.7054723477953e-06
  29    5.216552596248e-06
  30     -0.20492248380152
  31    -6.7733324368619e-07
  32    3.0385665629121e-06
  33    1.566451484626e-05
  34    2.5641051286753e-05
  35      0.35178953210473
  36    4.0519525053756e-07
  37    -1.773031148588e-06
  38    1.4236493024306e-05
  39    1.3532280657196e-05
  40     -0.35178749291177
  41    9.3934972370107e-07
  42    -3.3769966636391e-06
  43    -9.8524480160143e-07
  44    -7.9189277902349e-07
  45    -6.6529062234592e-06
  46    3.0201017907519e-06
  47    8.9683890394439e-07
  48    -2.4875812718391e-06
  49    5.7828914137916e-08
  50    9.2241237977672e-07
 Sym= A
 Ene=               4
 Spin= Alpha
 Occup=    1.00000
   1    1.1509236579911e-08
   2    -2.4131377741603e-07
   3    -2.7466992530099e-06
   4    -1.2465179037987e-05
   5     -0.39386264859158
   6    6.8646472238261e-07
   7    -3.4886140555452e-06
   8    9.9566026694546e-06
   9    4.697367825506e-06
  10     -0.39386958497778
  11    -5.9261415406238e-09
  12    -5.7741904816683e-08
  13    1.6337081091804e-05
  14    6.6885113339822e-06
  15      0.46520943852266
  16    -8.2044946815849e-07
  17    3.9528819165841e-06
  18    -1.5810926927235e-05
  19    -6.2381653423455e-06
  20      0.46520899546096
  21    -3.8772369588708e-07
  22    1.8627081860046e-06
  23    1.2169269674229e-05
  24      1.0711725378e-05
  25      0.22136123269188
  26     2.02199070795e-07
  27    -1.008505145803e-06
  28    -7.4313228314694e-06
  29    -7.6588986368199e-06
  30      0.22136847815474
  31    1.2031051659143e-06
  32    -6.0692094120928e-06
  33    -1.8736200835611e-05
  34    -2.9554383521546e-05
  35     -0.40397222024631
  36    4.8057184504915e-07
  37    -2.4855962253589e-06
  38    1.5862784932562e-05
  39    1.5077142468227e-05
  40     -0.40397788614153
  41    -2.5040898173207e-06
  42    -4.1624468630547e-06
  43    9.3150533410849e-07
  44    9.9248674275423e-07
  45    6.9610972245805e-06
  46    3.1667736203693e-06
  47    4.2710231443979e-06
  48    -3.9095515896458e-07
  49    1.1590424374259e-06
  50    3.9723785636671e-07
 Sym= A
 Ene=               5
 Spin= Alpha
 Occup=    1.00000
   1    -6.0428925988294e-07
   2    2.9372168482537e-06
   3    2.9327216655182e-06
   4    1.5627875854094e-05
   5      0.41148882459801
   6    4.8472002216367e-07
   7    -2.4242556198586e-06
   8    8.5007342822154e-06
   9    9.4288415921472e-06
  10     -0.41148166578078
  11    -1.8041943020441e-06
  12    9.3029865975278e-06
  13    -3.8927791884937e-06
  14    1.1462726694576e-06
  15     -0.11649917167158
  16    1.1320431469207e-06
  17    -5.9701992343503e-06
  18    -1.5524799407207e-06
  19    4.7824434010675e-07
  20      0.11649091724858
  21    1.1226793659544e-06
  22    -5.710395740074e-06
  23    -2.8301696347593e-05
  24    -2.2056321370156e-05
  25     -0.46967856411278
  26    -4.8501266635294e-07
  27    2.4525531865247e-06
  28    -2.0903217086259e-05
  29    -1.3226045619386e-05
  30      0.46967609657555
  31    -1.0221769838738e-06
  32    5.3265323204702e-06
  33    2.0903388097538e-05
  34    3.7776378681121e-05
  35      0.50594677768829
  36    4.8902287111741e-07
  37    -2.5585544701491e-06
  38    1.9095279689065e-05
  39    1.9496675420379e-05
  40     -0.50594171859265
  41    -7.9067788767101e-06
  42    7.5861164201388e-06
  43    -3.1345244544978e-06
  44    2.0414931241822e-06
  45    -4.3712675823843e-06
  46    1.9330743709535e-06
  47    -6.8323338205138e-06
  48    2.7490394309457e-06
  49    2.7757251843578e-06
  50    -9.2037368310401e-07
 Sym= A
 Ene=               6
 Spin= Alpha
 Occup=    1.00000
   1    1.1513128005622e-06
   2    -6.4525293915579e-06
   3    4.8141853964344e-06
   4    9.6221221511125e-06
   5      0.22560286147163
   6    -3.9486672905082e-07
   7    2.0902726234968e-06
   8    -1.0588138606761e-05
   9    3.515161087578e-07
  10      0.22558093341982
  11    9.8538076031762e-07
  12    -4.949426332057e-06
  13    -9.4179366891522e-06
  14    -1.4007147788231e-06
  15     -0.45096835805244
  16     1.15291568817e-06
  17    -6.0462269456741e-06
  18    1.2321042616406e-05
  19    4.4582128940458e-06
  20     -0.45094635176747
  21    -4.5965002836566e-07
  22    2.3003907347199e-06
  23    2.9576918997268e-05
  24    3.537062035272e-05
  25      0.55341035123182
  26    -6.6809001852045e-07
  27    3.5531400446673e-06
  28    -2.483667185434e-05
  29    -1.8961361601038e-05
  30      0.55339314142454
  31    -5.4689167489569e-07
  32    3.2158621009449e-06
  33    -1.3393416265682e-05
  34    -2.8612411916521e-05
  35     -0.42143112384236
  36    -1.677946814125e-07
  37    1.0431600435242e-06
  38    1.4359929888344e-05
  39    1.5303144432782e-05
  40     -0.42142071246256
  41    -4.0556019858859e-07
  42    3.4691104745138e-06
  43    1.1882756878536e-05
  44    4.4332742974322e-06
  45    -7.1774032612431e-06
  46    -3.8135872861931e-06
  47    1.4836931912322e-06
  48    -1.8727806344957e-06
  49    7.3747408679734e-07
  50    -8.2302084888504e-07
 Sym= A
 Ene=               7
 Spin= Alpha
 Occup=    1.00000
   1    -2.3110942023187e-06
   2    1.3939131758129e-05
   3    -1.5190401832396e-06
   4    -5.3917214225281e-05
   5     -0.57534089157056
   6    2.2476670443086e-06
   7    -1.3439383174627e-05
   8    -4.9464658780201e-06
   9    -4.3625008008776e-05
  10       0.5753509378093
  11    2.721679037491e-06
  12    -1.6146644185323e-05
  13    1.0705269287537e-05
  14    -2.319318267276e-05
  15      0.52022607792678
  16    -2.7741721501057e-06
  17    1.6282477934114e-05
  18    1.0849082503406e-05
  19    -2.0523417074615e-05
  20     -0.52024583068536
  21    -2.2074485740861e-06
  22    1.2934465491726e-05
  23    -6.6490582740453e-06
  24    -4.6489619892368e-05
  25     -0.37267684681203
  26    2.0545006705157e-06
  27    -1.2081753747205e-05
  28    -3.7521442564342e-06
  29    -3.2497012150424e-05
  30      0.37270075739305
  31    2.3450656627088e-06
  32    -1.3662263439422e-05
  33    5.2736729698201e-06
  34    3.1097560727872e-06
  35      0.23489155625741
  36    -1.7514595601102e-06
  37    1.0137655558216e-05
  38    6.2848814119196e-06
  39    -3.0320832948117e-06
  40     -0.23491002592824
  41    3.7265350370122e-05
  42    -3.4269362237259e-05
  43    -3.0606631878067e-05
  44    2.3277899162141e-05
  45    2.2201250178516e-05
  46    -1.6293560134607e-05
  47    1.4209312684355e-05
  48    -8.2106416570088e-06
  49    -1.2739003115329e-05
  50    8.3190524958557e-06
