[Molden Format]
made by pyscf v[2.6.2]
[Atoms] (AU)
C   1   6    -1.21829131469810     0.64419818723361    -0.00060660208599
C   2   6     1.21824029209274    -0.64390905913655    -0.00057825619412
C   3   6    -3.43945650425063    -0.53571656932682    -0.00054235139775
C   4   6     3.43942626863263     0.53596790290139    -0.00051022605363
C   5   6    -5.87879435433644     0.76290511320041    -0.00048943906626
C   6   6     5.87881136187156    -0.76256874195024    -0.00045731372214
C   7   6    -8.09453980936371    -0.40028745688375    -0.00031369453668
C   8   6     8.09458138333846     0.40058225415918    -0.00033070207180
H   9   1    -1.17195711984989     2.68173679953602    -0.00067463222647
H   10   1     1.17188908970940    -2.68144389198672    -0.00061794044273
H   11   1    -3.49239529190419    -2.57298117134118    -0.00051211577976
H   12   1     3.49234804875108     2.57323250491575    -0.00048943906626
H   13   1    -5.81945884375122     2.79920784461736    -0.00061227126436
H   14   1     5.81949474854759    -2.79886958364106    -0.00052912331488
H   15   1    -9.84049179091962     0.63656747314261    -0.00032125344118
H   16   1    -8.23912086542806    -2.42930907354275    -0.00017007535121
H   17   1     9.84053147516824    -0.63627456559331    -0.00030613563218
H   18   1     8.23918133666405     2.42960387081818    -0.00025322330069
[GTO]
1 0
 s    3 1.00
             71.616837    0.15432897000916
             13.045096    0.53532814003178
             3.5305122     0.4446345400264
 s    3 1.00
             2.9412494  -0.099967230075964
             0.6834831    0.39951283030359
             0.2222899    0.70011547053201
 p    3 1.00
             2.9412494    0.15591627210511
             0.6834831    0.60768372820466
             0.2222899    0.39195739529202

2 0
 s    3 1.00
             71.616837    0.15432897000916
             13.045096    0.53532814003178
             3.5305122     0.4446345400264
 s    3 1.00
             2.9412494  -0.099967230075964
             0.6834831    0.39951283030359
             0.2222899    0.70011547053201
 p    3 1.00
             2.9412494    0.15591627210511
             0.6834831    0.60768372820466
             0.2222899    0.39195739529202

3 0
 s    3 1.00
             71.616837    0.15432897000916
             13.045096    0.53532814003178
             3.5305122     0.4446345400264
 s    3 1.00
             2.9412494  -0.099967230075964
             0.6834831    0.39951283030359
             0.2222899    0.70011547053201
 p    3 1.00
             2.9412494    0.15591627210511
             0.6834831    0.60768372820466
             0.2222899    0.39195739529202

4 0
 s    3 1.00
             71.616837    0.15432897000916
             13.045096    0.53532814003178
             3.5305122     0.4446345400264
 s    3 1.00
             2.9412494  -0.099967230075964
             0.6834831    0.39951283030359
             0.2222899    0.70011547053201
 p    3 1.00
             2.9412494    0.15591627210511
             0.6834831    0.60768372820466
             0.2222899    0.39195739529202

5 0
 s    3 1.00
             71.616837    0.15432897000916
             13.045096    0.53532814003178
             3.5305122     0.4446345400264
 s    3 1.00
             2.9412494  -0.099967230075964
             0.6834831    0.39951283030359
             0.2222899    0.70011547053201
 p    3 1.00
             2.9412494    0.15591627210511
             0.6834831    0.60768372820466
             0.2222899    0.39195739529202

6 0
 s    3 1.00
             71.616837    0.15432897000916
             13.045096    0.53532814003178
             3.5305122     0.4446345400264
 s    3 1.00
             2.9412494  -0.099967230075964
             0.6834831    0.39951283030359
             0.2222899    0.70011547053201
 p    3 1.00
             2.9412494    0.15591627210511
             0.6834831    0.60768372820466
             0.2222899    0.39195739529202

7 0
 s    3 1.00
             71.616837    0.15432897000916
             13.045096    0.53532814003178
             3.5305122     0.4446345400264
 s    3 1.00
             2.9412494  -0.099967230075964
             0.6834831    0.39951283030359
             0.2222899    0.70011547053201
 p    3 1.00
             2.9412494    0.15591627210511
             0.6834831    0.60768372820466
             0.2222899    0.39195739529202

8 0
 s    3 1.00
             71.616837    0.15432897000916
             13.045096    0.53532814003178
             3.5305122     0.4446345400264
 s    3 1.00
             2.9412494  -0.099967230075964
             0.6834831    0.39951283030359
             0.2222899    0.70011547053201
 p    3 1.00
             2.9412494    0.15591627210511
             0.6834831    0.60768372820466
             0.2222899    0.39195739529202

9 0
 s    3 1.00
            3.42525091    0.15432897070298
            0.62391373    0.53532814243847
             0.1688554    0.44463454202535

10 0
 s    3 1.00
            3.42525091    0.15432897070298
            0.62391373    0.53532814243847
             0.1688554    0.44463454202535

11 0
 s    3 1.00
            3.42525091    0.15432897070298
            0.62391373    0.53532814243847
             0.1688554    0.44463454202535

12 0
 s    3 1.00
            3.42525091    0.15432897070298
            0.62391373    0.53532814243847
             0.1688554    0.44463454202535

13 0
 s    3 1.00
            3.42525091    0.15432897070298
            0.62391373    0.53532814243847
             0.1688554    0.44463454202535

14 0
 s    3 1.00
            3.42525091    0.15432897070298
            0.62391373    0.53532814243847
             0.1688554    0.44463454202535

15 0
 s    3 1.00
            3.42525091    0.15432897070298
            0.62391373    0.53532814243847
             0.1688554    0.44463454202535

16 0
 s    3 1.00
            3.42525091    0.15432897070298
            0.62391373    0.53532814243847
             0.1688554    0.44463454202535

17 0
 s    3 1.00
            3.42525091    0.15432897070298
            0.62391373    0.53532814243847
             0.1688554    0.44463454202535

18 0
 s    3 1.00
            3.42525091    0.15432897070298
            0.62391373    0.53532814243847
             0.1688554    0.44463454202535

[5d]
[7f]
[9g]

[MO]
 Sym= A
 Ene=               0
 Spin= Alpha
 Occup=    1.00000
   1    -1.0654190218547e-06
   2    3.1358436539766e-06
   3    4.8868150411961e-05
   4    3.2823289088612e-05
   5       1.0377218139172
   6    -2.9123823671601e-06
   7    1.4991137166374e-05
   8    -4.1053344925909e-05
   9    3.8732265257469e-05
  10      -0.1011369700463
  11    -1.7722000982045e-06
  12    1.1427860447287e-05
  13    -4.2944368307254e-05
  14    3.0449773051798e-05
  15     -0.12758107898351
  16    1.7853723830294e-06
  17    -9.0719431092267e-06
  18    4.714041209323e-05
  19    -1.2959594495494e-05
  20    0.0067840355981277
  21    -8.4889097687423e-07
  22    1.1445212883519e-06
  23    2.7081700257362e-05
  24    -5.8479051882798e-06
  25    0.0059306300909897
  26    -4.3686993827754e-06
  27    1.9540974655547e-05
  28    -4.4957306227655e-05
  29    4.1502561425437e-05
  30    0.00025370130892508
  31    -5.9959338822254e-08
  32    4.9895480715761e-06
  33    -2.2608476578956e-05
  34    2.2568995239318e-05
  35    0.00029158991886742
  36    1.758614248633e-06
  37    -6.628357492808e-06
  38    2.4252366638205e-05
  39    -1.3481160632431e-05
  40    -0.00012455326631301
  41    -3.3559558959236e-05
  42    2.9946985476345e-06
  43    -2.1889781074407e-06
  44    -3.6762930839201e-05
  45    -3.1028826494129e-05
  46    -2.1910154525217e-05
  47    1.9434310498502e-05
  48    -1.3369665947365e-05
  49    3.7927678666535e-05
  50    -2.7185749202187e-05
 Sym= A
 Ene=               1
 Spin= Alpha
 Occup=    1.00000
   1    -2.1113283200827e-06
   2    9.7820637923515e-06
   3    2.9675823139618e-05
   4    -2.4734857510431e-05
   5    0.00025374486802326
   6    -2.1933164304553e-07
   7    1.7784149210469e-07
   8    -2.933722191482e-05
   9    8.065581752295e-06
  10     0.006699536244836
  11    -1.3363043470885e-07
  12    5.1489208183228e-07
  13    -2.4973851504977e-05
  14    1.0750145811835e-05
  15    -0.0001263403241423
  16    -9.4585212356437e-07
  17    5.4132205732561e-06
  18    2.8809189299156e-05
  19    -2.1116335656881e-05
  20     -0.10037428587845
  21    -2.4965993785663e-06
  22    1.0938057058528e-05
  23    2.6523768499202e-05
  24    -2.288604075439e-05
  25    1.5412271419296e-05
  26    -1.7725934296781e-06
  27    6.6018074016164e-06
  28    -6.454812812633e-05
  29    -2.1831645246722e-05
  30       1.0378753397998
  31    9.5902747267015e-07
  32    -3.2857233683802e-06
  33    -1.4620477040059e-05
  34    8.0629383610965e-06
  35    -1.2580694145198e-06
  36    4.6739724568682e-07
  37    9.6607693930117e-08
  38    2.0240863117233e-05
  39    -9.9558666720771e-06
  40     -0.12738925872337
  41    -9.4607311187643e-06
  42    -2.2457615256942e-05
  43    -2.2394625367534e-05
  44    -4.8301518744322e-06
  45    -1.3561597849273e-05
  46    -2.1181240426162e-05
  47    2.1975968661719e-05
  48    -1.5512227113788e-05
  49    1.8824608433011e-05
  50    -1.2628407248803e-05
 Sym= A
 Ene=               2
 Spin= Alpha
 Occup=    1.00000
   1    -9.1995862482083e-07
   2    3.5844322721095e-06
   3    1.6555104944913e-05
   4    -7.5027791844113e-06
   5    -0.00012563961383266
   6    -1.2487799825828e-06
   7    6.5973995841809e-06
   8    -1.9438635583478e-05
   9    1.4991801692711e-05
  10    0.00030751997684846
  11    -6.7840650293965e-07
  12    3.8877413704284e-06
  13    -1.7400833993723e-05
  14    1.4306069433414e-05
  15    1.9352124208116e-05
  16    -8.0476008843945e-07
  17    4.0060995846343e-06
  18    1.8874567896023e-05
  19    -4.8583854297786e-06
  20    0.0060972197566078
  21    -1.0883114225612e-06
  22    3.7991044984954e-06
  23    1.4389047394052e-05
  24    -1.0212791759469e-05
  25    -1.1181866218513e-06
  26    -1.3060052227368e-06
  27    5.5456513160928e-06
  28    -1.1944746495042e-05
  29    1.9321341570184e-05
  30     -0.12859443982564
  31    2.8071993185068e-07
  32    -8.699372428682e-08
  33    -9.7106175456908e-06
  34    8.8511680428818e-06
  35    -5.013006829091e-08
  36    3.904196160239e-07
  37    -9.3598018179024e-07
  38    -2.6816486909019e-05
  39    -4.3526214618709e-05
  40        1.023555601352
  41    -1.512199118444e-05
  42    -7.6456618974263e-06
  43    -9.4772694219746e-06
  44    -1.6477322598788e-05
  45    -1.275858712635e-05
  46    -8.8743836729287e-06
  47    1.0886306682997e-05
  48    -7.5612199366773e-06
  49    1.4337338846539e-05
  50    -1.0787985287564e-05
 Sym= A
 Ene=               3
 Spin= Alpha
 Occup=    1.00000
   1    -1.6163345299795e-06
   2    6.3931259342807e-06
   3    3.5831181977046e-05
   4    -3.5970515129048e-06
   5    0.0060299831698851
   6    -2.5107365796342e-06
   7    1.2457583957343e-05
   8    -3.5705123282898e-05
   9    3.5099294022984e-05
  10     -0.12760973069361
  11    -1.8499694451776e-06
  12    1.1791392093134e-05
  13    -3.7104268332286e-05
  14    3.0673186021555e-05
  15    0.0003147062390268
  16    -3.7960454230409e-07
  17    1.4318221765861e-06
  18    9.6490725233181e-06
  19    -2.2118966632462e-05
  20       1.0375140482874
  21    -1.7465318035894e-06
  22    5.142555398929e-06
  23    2.7819138349879e-05
  24    -1.6913209880117e-05
  25    -0.00012515166150795
  26    -3.1798905604061e-06
  27    1.4049019882453e-05
  28    -3.3100210250774e-05
  29    3.6978216016513e-05
  30     -0.10044934637765
  31    4.5966248096384e-07
  32    8.5808822976878e-07
  33    -2.0842144514035e-05
  34    1.9816707552347e-05
  35    1.9199079751009e-05
  36     2.40909513353e-06
  37    -9.8131656296856e-06
  38    2.503154452859e-05
  39    -1.1203657186433e-05
  40    0.0069473249532824
  41    -3.3502694457344e-05
  42    -8.5091931772532e-06
  43    -1.4006709524014e-05
  44    -3.3171068127178e-05
  45    -2.7409757837551e-05
  46    -1.1249247977096e-05
  47    2.093330299236e-05
  48    -1.4248258172911e-05
  49    3.4648682180119e-05
  50    -2.2500422796754e-05
 Sym= A
 Ene=               4
 Spin= Alpha
 Occup=    1.00000
   1    -2.9604177544409e-06
   2    1.5311425114636e-05
   3    3.874920876599e-05
   4    -3.5983712987626e-05
   5     -0.12760968626083
   6    -2.2351682083775e-07
   7    -4.3323593541019e-07
   8    -2.8904677364847e-05
   9    1.1944319146696e-06
  10    0.0060296417349497
  11    5.5278949812055e-07
  12    -2.8905435903394e-06
  13    -8.8846203569843e-06
  14    1.3637679717358e-05
  15       1.0375140407291
  16    -2.4646577375352e-06
  17    1.4335250468954e-05
  18    3.7186831633794e-05
  19    -3.5655410684182e-05
  20    0.00031471620752063
  21    -3.0678509332296e-06
  22    1.4232580888651e-05
  23    3.1311053662148e-05
  24    -3.6571782372872e-05
  25     -0.10044913461451
  26    -1.6244681510878e-06
  27    4.2954742620649e-06
  28    -2.8386057946567e-05
  29    2.1197465585082e-05
  30    -0.00012514267434327
  31    3.6623528539264e-06
  32    -1.5858687882037e-05
  33    -2.9006555476734e-05
  34    7.5582645198098e-06
  35    0.0069462910711733
  36    2.5639695285273e-07
  37    1.5645396793884e-06
  38    2.0678773382561e-05
  39    -2.2349976275135e-05
  40    1.9197905768098e-05
  41    1.2645811008157e-06
  42    -3.4588964628686e-05
  43    -2.9286070092257e-05
  44    -1.7594115278684e-05
  45    2.2581998646677e-06
  46    -3.1119341036646e-05
  47    3.5921013524732e-05
  48    -1.9865175775377e-05
  49    2.318674028669e-05
  50    -1.7096505511287e-05
 Sym= A
 Ene=               5
 Spin= Alpha
 Occup=    1.00000
   1    -1.1990427622781e-06
   2    7.3624498076543e-06
   3    2.2093342532734e-05
   4    -1.3803634224088e-05
   5    0.0003078557758542
   6    -7.0404758922899e-07
   7    2.2974050256089e-06
   8    -1.573609905851e-05
   9    6.2948185385494e-06
  10    -0.00012567821562871
  11    -1.5227119822691e-06
  12    7.7764642382439e-06
  13    -2.3478073454074e-05
  14    -7.3562518255637e-07
  15     0.006096087896735
  16    -7.6269225188292e-07
  17    4.386669722383e-06
  18    1.8565866352796e-05
  19    -1.6368765086592e-05
  20    1.9354193003765e-05
  21    -9.6845803957438e-07
  22    4.1789991950171e-06
  23    1.016893642987e-05
  24    -2.1094034275831e-05
  25     -0.12859448155426
  26    -1.0665999876668e-06
  27    3.4884205478413e-06
  28    -1.4848298699648e-05
  29    1.1591517514562e-05
  30    -1.1186244656541e-06
  31    2.1415998605642e-07
  32    7.6076080426354e-08
  33    2.7969268208305e-05
  34    7.7942748768586e-05
  35       1.0235556712518
  36     2.12980461274e-07
  37    2.3573655147084e-07
  38    9.9135509215411e-06
  39    -1.0130744948359e-05
  40    -5.0014201301296e-08
  41    -4.2364697106169e-06
  42    -1.5503132214067e-05
  43    -1.628643186858e-05
  44    -1.0231042702067e-05
  45    -8.5632974632008e-06
  46    -1.4450906900383e-05
  47    1.3391814930664e-05
  48    -1.0468660963114e-05
  49     1.17176138188e-05
  50    -8.6150930062676e-06
 Sym= A
 Ene=               6
 Spin= Alpha
 Occup=    1.00000
   1    9.381477721587e-07
   2    -5.2850546811018e-06
   3    3.3008558998218e-05
   4    -4.8736907909118e-07
   5     0.006698479234904
   6    -2.4467912361058e-06
   7    1.2040514148783e-05
   8    -3.1036599046783e-05
   9    2.6865234753388e-05
  10    0.00025392709709396
  11    -5.8765979254455e-07
  12    4.230199265057e-06
  13    -2.8183168882085e-05
  14    1.7475270942771e-05
  15     -0.10037408390153
  16    -1.1604429038271e-08
  17    -3.2852043863404e-07
  18    2.6879505979538e-05
  19    -1.214401285077e-05
  20    -0.00012636012101522
  21    -1.910857300452e-06
  22    7.5895619974421e-06
  23    7.632316264482e-05
  24    5.1563953438034e-05
  25       1.0378754265923
  26    -2.7652091367892e-06
  27    1.2264716962696e-05
  28    -2.8271558862437e-05
  29    2.5976261622703e-05
  30    1.5412251927402e-05
  31    7.1699800656231e-07
  32    -4.5667267352131e-07
  33    -2.1575585047734e-05
  34    5.0215000752365e-06
  35     -0.12738952654463
  36    9.474733492761e-07
  37    -3.3316525091613e-06
  38    1.5276544303448e-05
  39    -9.594109174101e-06
  40    -1.2581922724936e-06
  41    -2.063119161795e-05
  42    -8.7418901980648e-06
  43    8.2716951502244e-06
  44    -2.5321060005872e-05
  45    -1.9930676405849e-05
  46    -1.6195573315574e-05
  47    2.2762184261888e-05
  48    -1.4435251379545e-05
  49    2.3690960789421e-05
  50    -1.7465296831982e-05
 Sym= A
 Ene=               7
 Spin= Alpha
 Occup=    1.00000
   1    -2.8427737873626e-06
   2    1.4384003649912e-05
   3    4.2710287880843e-05
   4    -3.7992496627979e-05
   5     -0.10113687584114
   6    -1.7124430290993e-06
   7    6.602513908465e-06
   8    -6.0738182694847e-05
   9    -1.0596383507146e-05
  10       1.0377218222923
  11    2.0873889288413e-06
  12    -9.9550752535973e-06
  13    -4.4565066333245e-05
  14    5.5786407200962e-06
  15    0.0067836723096979
  16    -1.8332186151632e-06
  17    1.1133523610658e-05
  18    4.4864369896566e-05
  19    -3.51718781501e-05
  20     -0.12758128320022
  21    -4.1725018430922e-06
  22    1.8996655353797e-05
  23    4.3134256143914e-05
  24    -3.7656309644769e-05
  25    0.00025387398782151
  26    -2.0059227582361e-06
  27    6.356592270091e-06
  28    -3.2905395558643e-05
  29    1.8446509461099e-05
  30    0.0059317330161129
  31    2.0571379520646e-06
  32    -8.099811137207e-06
  33    -2.3851274767993e-05
  34    9.6676265788676e-06
  35    -0.00012458689965145
  36    2.4797507799934e-07
  37    2.6192226693921e-06
  38    2.3449104804499e-05
  39    -2.3763574741346e-05
  40    0.00029126125525898
  41    5.009853059538e-06
  42    -3.6506703593434e-05
  43    -3.2971397163957e-05
  44    -1.5566296077569e-05
  45    -1.5037853465964e-05
  46    -3.4128014424552e-05
  47    3.6506695334821e-05
  48    -2.4400910078968e-05
  49    2.4572649992645e-05
  50    -1.783665785412e-05
